<?xml version="1.0"?>
<VTKFile type="UnstructuredGrid" version="1.0">
<UnstructuredGrid>
<Piece NumberOfPoints="8" NumberOfCells="1">
<Points>
<DataArray type="Float32" NumberOfComponents="3" format="ascii">
  0.000000000000E+00  0.000000000000E+00  0.000000000000E+00
  1.000000000000E+00  0.000000000000E+00  0.000000000000E+00
  0.000000000000E+00  1.000000000000E+00  0.000000000000E+00
  1.000000000000E+00  1.000000000000E+00  0.000000000000E+00
  0.000000000000E+00  0.000000000000E+00  1.000000000000E+00
  1.000000000000E+00  0.000000000000E+00  1.000000000000E+00
  1.000000000000E+00  1.000000000000E+00  1.000000000000E+00
  0.000000000000E+00  1.000000000000E+00  1.000000000000E+00
</DataArray>
</Points>
<Cells>
<DataArray type="Int32" Name="connectivity" format="ascii">
       0       1       3       2       4       5       6       7
</DataArray>
<DataArray type="Int32" Name="offsets" format="ascii">
8
</DataArray>
<DataArray type="UInt8" Name="types" format="ascii">
12
</DataArray>
</Cells>
<PointData>
<DataArray type="Float32" Name="MicroHeni" NumberOfComponents="3" format="ascii">
 -2.8928E-24 -1.4768E-25  3.1531E-24
  2.1000E-01 -2.6364E-25  3.9542E-24
 -3.3855E-24 -1.0474E-01  4.0869E-24
  2.1000E-01 -1.0474E-01  4.3660E-24
 -4.0850E-24 -5.1179E-25 -1.0474E-01
  2.1000E-01 -7.1942E-25 -1.0474E-01
  2.1000E-01 -1.0474E-01 -1.0474E-01
 -4.5005E-24 -1.0474E-01 -1.0474E-01
</DataArray>
</PointData>
<CellData>
<DataArray type="Float32" Name="SoutouOuryoku" NumberOfComponents="1" format="ascii">
  1.0594E+02
</DataArray>
<DataArray type="Float32" Name="Nensose" NumberOfComponents="1" format="ascii">
  2.5533E-01
</DataArray>
</CellData>
</Piece>
</UnstructuredGrid>
</VTKFile>
